Mo S                                    
   1.00000000000000     
     3.185000    0.000000    0.000000
    -1.592500    2.758291    0.000000
     0.000000    0.000000   25.000000
   Mo   S    W 
     1     4     1
Direct
  0.666667  0.333333  0.377398
  0.000000  0.000000  0.314918
  0.000000  0.000000  0.440000
  0.666667  0.333333  0.560000
  0.666667  0.333333  0.685541
  0.000000  0.000000  0.622819
 
   28   28  210
 0.13162E-11 0.21126E-07 0.36457E-07 0.20942E-07 0.18507E-07 0.24231E-07 0.20915E-07 0.25223E-07 0.42609E-07 0.93754E-07
 0.15233E-06 0.11093E-06 0.13514E-07 0.18295E-07 0.60334E-07 0.18295E-07 0.13514E-07 0.11093E-06 0.15233E-06 0.93754E-07
 0.42609E-07 0.25223E-07 0.20915E-07 0.24231E-07 0.18507E-07 0.20942E-07 0.36457E-07 0.21126E-07 0.21126E-07 0.21126E-07
 0.13691E-07 0.63047E-08 0.87883E-08 0.10405E-07 0.63451E-08 0.97862E-08 0.21162E-07 0.60603E-07 0.13238E-06 0.13702E-06
 0.50388E-07 0.42983E-07 0.14188E-06 0.14188E-06 0.42983E-07 0.50388E-07 0.13702E-06 0.13238E-06 0.60603E-07 0.21162E-07
 0.97862E-08 0.63451E-08 0.10405E-07 0.87883E-08 0.63047E-08 0.13691E-07 0.36457E-07 0.57659E-07 0.36457E-07 0.63047E-08
 0.81598E-09 0.20089E-08 0.26304E-08 0.14025E-07 0.17446E-07 0.20323E-07 0.68800E-07 0.11589E-06 0.79704E-07 0.51087E-07
 0.14104E-06 0.21684E-06 0.14104E-06 0.51087E-07 0.79704E-07 0.11589E-06 0.68800E-07 0.20323E-07 0.17446E-07 0.14025E-07
 0.26304E-08 0.20089E-08 0.81598E-09 0.63047E-08 0.20942E-07 0.40529E-07 0.40529E-07 0.20942E-07 0.87883E-08 0.20089E-08
 0.36267E-08 0.29949E-07 0.46478E-07 0.23552E-07 0.11782E-07 0.35994E-07 0.37274E-07 0.12187E-07 0.36299E-07 0.97948E-07
 0.97948E-07 0.36299E-07 0.12187E-07 0.37274E-07 0.35994E-07 0.11782E-07 0.23552E-07 0.46478E-07 0.29949E-07 0.36267E-08
 0.20089E-08 0.87883E-08 0.18507E-07 0.11592E-07 0.61868E-08 0.11592E-07 0.18507E-07 0.10405E-07 0.26304E-08 0.29949E-07
 0.66641E-07 0.57711E-07 0.20059E-07 0.10044E-08 0.22906E-08 0.11746E-07 0.19401E-07 0.10700E-07 0.96833E-09 0.10700E-07
 0.19401E-07 0.11746E-07 0.22906E-08 0.10044E-08 0.20059E-07 0.57711E-07 0.66641E-07 0.29949E-07 0.26304E-08 0.10405E-07
 0.24231E-07 0.25224E-07 0.78648E-08 0.78648E-08 0.25224E-07 0.24231E-07 0.63451E-08 0.14025E-07 0.46478E-07 0.57711E-07
 0.41257E-07 0.25869E-07 0.29901E-07 0.72610E-07 0.13479E-06 0.14086E-06 0.94318E-07 0.94318E-07 0.14086E-06 0.13479E-06
 0.72610E-07 0.29901E-07 0.25869E-07 0.41257E-07 0.57711E-07 0.46478E-07 0.14025E-07 0.63451E-08 0.20915E-07 0.34538E-07
 0.25806E-07 0.14994E-07 0.25806E-07 0.34538E-07 0.20915E-07 0.97862E-08 0.17446E-07 0.23552E-07 0.20059E-07 0.25869E-07
 0.55788E-07 0.11627E-06 0.19543E-06 0.24496E-06 0.23751E-06 0.22096E-06 0.23751E-06 0.24496E-06 0.19543E-06 0.11627E-06
 0.55788E-07 0.25869E-07 0.20059E-07 0.23552E-07 0.17446E-07 0.97862E-08 0.25223E-07 0.31304E-07 0.23799E-07 0.62440E-08
 0.62440E-08 0.23799E-07 0.31304E-07 0.25223E-07 0.21162E-07 0.20323E-07 0.11782E-07 0.10044E-08 0.29901E-07 0.11627E-06
 0.18652E-06 0.18280E-06 0.16650E-06 0.18315E-06 0.18315E-06 0.16650E-06 0.18280E-06 0.18652E-06 0.11627E-06 0.29901E-07
 0.10044E-08 0.11782E-07 0.20323E-07 0.21162E-07 0.42609E-07 0.32144E-07 0.25517E-07 0.15672E-07 0.93514E-08 0.15672E-07
 0.25517E-07 0.32144E-07 0.42609E-07 0.60603E-07 0.68800E-07 0.35994E-07 0.22906E-08 0.72610E-07 0.19543E-06 0.18280E-06
 0.65078E-07 0.33630E-07 0.58110E-07 0.33630E-07 0.65078E-07 0.18280E-06 0.19543E-06 0.72610E-07 0.22906E-08 0.35994E-07
 0.68800E-07 0.60603E-07 0.93754E-07 0.42122E-07 0.15412E-07 0.28483E-07 0.52145E-07 0.52145E-07 0.28483E-07 0.15412E-07
 0.42122E-07 0.93754E-07 0.13238E-06 0.11589E-06 0.37274E-07 0.11746E-07 0.13479E-06 0.24496E-06 0.16650E-06 0.33630E-07
 0.75488E-09 0.75488E-09 0.33630E-07 0.16650E-06 0.24496E-06 0.13479E-06 0.11746E-07 0.37274E-07 0.11589E-06 0.13238E-06
 0.15233E-06 0.10337E-06 0.24127E-07 0.38202E-08 0.52650E-07 0.86119E-07 0.52650E-07 0.38202E-08 0.24127E-07 0.10337E-06
 0.15233E-06 0.13702E-06 0.79704E-07 0.12187E-07 0.19401E-07 0.14086E-06 0.23751E-06 0.18315E-06 0.58110E-07 0.75488E-09
 0.58110E-07 0.18315E-06 0.23751E-06 0.14086E-06 0.19401E-07 0.12187E-07 0.79704E-07 0.13702E-06 0.11093E-06 0.16279E-06
 0.10956E-06 0.25283E-07 0.18195E-07 0.58343E-07 0.58343E-07 0.18195E-07 0.25283E-07 0.10956E-06 0.16279E-06 0.11093E-06
 0.50388E-07 0.51087E-07 0.36299E-07 0.10700E-07 0.94318E-07 0.22096E-06 0.18315E-06 0.33630E-07 0.33630E-07 0.18315E-06
 0.22096E-06 0.94318E-07 0.10700E-07 0.36299E-07 0.51087E-07 0.50388E-07 0.13514E-07 0.10954E-06 0.16513E-06 0.11572E-06
 0.51400E-07 0.30565E-07 0.30956E-07 0.30565E-07 0.51400E-07 0.11572E-06 0.16513E-06 0.10954E-06 0.13514E-07 0.42983E-07
 0.14104E-06 0.97948E-07 0.96833E-09 0.94318E-07 0.23751E-06 0.16650E-06 0.65078E-07 0.16650E-06 0.23751E-06 0.94318E-07
 0.96833E-09 0.97948E-07 0.14104E-06 0.42983E-07 0.18295E-07 0.24804E-07 0.10644E-06 0.15072E-06 0.12674E-06 0.65003E-07
 0.16990E-07 0.16990E-07 0.65003E-07 0.12674E-06 0.15072E-06 0.10644E-06 0.24804E-07 0.18295E-07 0.14188E-06 0.21684E-06
 0.97948E-07 0.10700E-07 0.14086E-06 0.24496E-06 0.18280E-06 0.18280E-06 0.24496E-06 0.14086E-06 0.10700E-07 0.97948E-07
 0.21684E-06 0.14188E-06 0.60334E-07 0.16680E-07 0.45780E-07 0.12764E-06 0.17745E-06 0.12633E-06 0.38276E-07 0.16271E-08
 0.38276E-07 0.12633E-06 0.17745E-06 0.12764E-06 0.45780E-07 0.16680E-07 0.60334E-07 0.14188E-06 0.14104E-06 0.36299E-07
 0.19401E-07 0.13479E-06 0.19543E-06 0.18652E-06 0.19543E-06 0.13479E-06 0.19401E-07 0.36299E-07 0.14104E-06 0.14188E-06
 0.18295E-07 0.16680E-07 0.37085E-07 0.12921E-06 0.23268E-06 0.19121E-06 0.64660E-07 0.64106E-08 0.64106E-08 0.64660E-07
 0.19121E-06 0.23268E-06 0.12921E-06 0.37085E-07 0.16680E-07 0.18295E-07 0.42983E-07 0.51087E-07 0.12187E-07 0.11746E-07
 0.72610E-07 0.11627E-06 0.11627E-06 0.72610E-07 0.11746E-07 0.12187E-07 0.51087E-07 0.42983E-07 0.13514E-07 0.24804E-07
 0.45780E-07 0.12921E-06 0.26890E-06 0.24962E-06 0.76361E-07 0.13192E-07 0.39889E-07 0.13192E-07 0.76361E-07 0.24962E-06
 0.26890E-06 0.12921E-06 0.45780E-07 0.24804E-07 0.13514E-07 0.50388E-07 0.79704E-07 0.37274E-07 0.22906E-08 0.29901E-07
 0.55788E-07 0.29901E-07 0.22906E-08 0.37274E-07 0.79704E-07 0.50388E-07 0.11093E-06 0.10954E-06 0.10644E-06 0.12764E-06
 0.23268E-06 0.24962E-06 0.78736E-07 0.92627E-08 0.13655E-06 0.13655E-06 0.92627E-08 0.78736E-07 0.24962E-06 0.23268E-06
 0.12764E-06 0.10644E-06 0.10954E-06 0.11093E-06 0.13702E-06 0.11589E-06 0.35994E-07 0.10044E-08 0.25869E-07 0.25869E-07
 0.10044E-08 0.35994E-07 0.11589E-06 0.13702E-06 0.15233E-06 0.16279E-06 0.16513E-06 0.15072E-06 0.17745E-06 0.19121E-06
 0.76361E-07 0.92627E-08 0.19188E-06 0.34647E-06 0.19188E-06 0.92627E-08 0.76361E-07 0.19121E-06 0.17745E-06 0.15072E-06
 0.16513E-06 0.16279E-06 0.15233E-06 0.13238E-06 0.68800E-07 0.11782E-07 0.20059E-07 0.41257E-07 0.20059E-07 0.11782E-07
 0.68800E-07 0.13238E-06 0.93754E-07 0.10337E-06 0.10956E-06 0.11572E-06 0.12674E-06 0.12633E-06 0.64660E-07 0.13192E-07
 0.13655E-06 0.34647E-06 0.34647E-06 0.13655E-06 0.13192E-07 0.64660E-07 0.12633E-06 0.12674E-06 0.11572E-06 0.10956E-06
 0.10337E-06 0.93754E-07 0.60603E-07 0.20323E-07 0.23552E-07 0.57711E-07 0.57711E-07 0.23552E-07 0.20323E-07 0.60603E-07
 0.42609E-07 0.42122E-07 0.24127E-07 0.25283E-07 0.51400E-07 0.65003E-07 0.38276E-07 0.64106E-08 0.39889E-07 0.13655E-06
 0.19188E-06 0.13655E-06 0.39889E-07 0.64106E-08 0.38276E-07 0.65003E-07 0.51400E-07 0.25283E-07 0.24127E-07 0.42122E-07
 0.42609E-07 0.21162E-07 0.17446E-07 0.46478E-07 0.66641E-07 0.46478E-07 0.17446E-07 0.21162E-07 0.25223E-07 0.32144E-07
 0.15412E-07 0.38202E-08 0.18195E-07 0.30565E-07 0.16990E-07 0.16271E-08 0.64106E-08 0.13192E-07 0.92627E-08 0.92627E-08
 0.13192E-07 0.64106E-08 0.16271E-08 0.16990E-07 0.30565E-07 0.18195E-07 0.38202E-08 0.15412E-07 0.32144E-07 0.25223E-07
 0.97862E-08 0.14025E-07 0.29949E-07 0.29949E-07 0.14025E-07 0.97862E-08 0.20915E-07 0.31304E-07 0.25517E-07 0.28483E-07
 0.52650E-07 0.58343E-07 0.30956E-07 0.16990E-07 0.38276E-07 0.64660E-07 0.76361E-07 0.78736E-07 0.76361E-07 0.64660E-07
 0.38276E-07 0.16990E-07 0.30956E-07 0.58343E-07 0.52650E-07 0.28483E-07 0.25517E-07 0.31304E-07 0.20915E-07 0.63451E-08
 0.26304E-08 0.36267E-08 0.26304E-08 0.63451E-08 0.24231E-07 0.34538E-07 0.23799E-07 0.15672E-07 0.52145E-07 0.86119E-07
 0.58343E-07 0.30565E-07 0.65003E-07 0.12633E-06 0.19121E-06 0.24962E-06 0.24962E-06 0.19121E-06 0.12633E-06 0.65003E-07
 0.30565E-07 0.58343E-07 0.86119E-07 0.52145E-07 0.15672E-07 0.23799E-07 0.34538E-07 0.24231E-07 0.10405E-07 0.20089E-08
 0.20089E-08 0.10405E-07 0.18507E-07 0.25224E-07 0.25806E-07 0.62440E-08 0.93514E-08 0.52145E-07 0.52650E-07 0.18195E-07
 0.51400E-07 0.12674E-06 0.17745E-06 0.23268E-06 0.26890E-06 0.23268E-06 0.17745E-06 0.12674E-06 0.51400E-07 0.18195E-07
 0.52650E-07 0.52145E-07 0.93514E-08 0.62440E-08 0.25806E-07 0.25224E-07 0.18507E-07 0.87883E-08 0.81598E-09 0.87883E-08
 0.20942E-07 0.11592E-07 0.78648E-08 0.14994E-07 0.62440E-08 0.15672E-07 0.28483E-07 0.38202E-08 0.25283E-07 0.11572E-06
 0.15072E-06 0.12764E-06 0.12921E-06 0.12921E-06 0.12764E-06 0.15072E-06 0.11572E-06 0.25283E-07 0.38202E-08 0.28483E-07
 0.15672E-07 0.62440E-08 0.14994E-07 0.78648E-08 0.11592E-07 0.20942E-07 0.63047E-08 0.63047E-08 0.36457E-07 0.40529E-07
 0.61868E-08 0.78648E-08 0.25806E-07 0.23799E-07 0.25517E-07 0.15412E-07 0.24127E-07 0.10956E-06 0.16513E-06 0.10644E-06
 0.45780E-07 0.37085E-07 0.45780E-07 0.10644E-06 0.16513E-06 0.10956E-06 0.24127E-07 0.15412E-07 0.25517E-07 0.23799E-07
 0.25806E-07 0.78648E-08 0.61868E-08 0.40529E-07 0.36457E-07 0.13691E-07 0.21126E-07 0.57659E-07 0.40529E-07 0.11592E-07
 0.25224E-07 0.34538E-07 0.31304E-07 0.32144E-07 0.42122E-07 0.10337E-06 0.16279E-06 0.10954E-06 0.24804E-07 0.16680E-07
 0.16680E-07 0.24804E-07 0.10954E-06 0.16279E-06 0.10337E-06 0.42122E-07 0.32144E-07 0.31304E-07 0.34538E-07 0.25224E-07
 0.11592E-07 0.40529E-07 0.57659E-07 0.21126E-07 0.11781E-11 0.79442E-07 0.13214E-06 0.62451E-07 0.41113E-07 0.37817E-07
 0.33141E-08 0.54132E-07 0.10467E-06 0.56345E-07 0.61682E-07 0.11503E-06 0.72514E-07 0.10233E-07 0.25462E-10 0.10233E-07
 0.72514E-07 0.11503E-06 0.61682E-07 0.56345E-07 0.10467E-06 0.54132E-07 0.33141E-08 0.37817E-07 0.41113E-07 0.62451E-07
 0.13214E-06 0.79442E-07 0.79442E-07 0.79442E-07 0.16312E-06 0.11671E-06 0.22860E-07 0.92680E-08 0.48197E-08 0.27472E-07
 0.81875E-07 0.80411E-07 0.10513E-06 0.17272E-06 0.11513E-06 0.16495E-07 0.30355E-07 0.30355E-07 0.16495E-07 0.11513E-06
 0.17272E-06 0.10513E-06 0.80411E-07 0.81875E-07 0.27472E-07 0.48197E-08 0.92680E-08 0.22860E-07 0.11671E-06 0.16312E-06
 0.13214E-06 0.98028E-07 0.13214E-06 0.11671E-06 0.23425E-07 0.62138E-08 0.35688E-07 0.36240E-07 0.50993E-07 0.55148E-07
 0.68850E-07 0.15200E-06 0.16035E-06 0.66888E-07 0.86922E-07 0.15230E-06 0.86922E-07 0.66888E-07 0.16035E-06 0.15200E-06
 0.68850E-07 0.55148E-07 0.50993E-07 0.36240E-07 0.35688E-07 0.62138E-08 0.23425E-07 0.11671E-06 0.62451E-07 0.36195E-07
 0.36195E-07 0.62451E-07 0.22860E-07 0.62138E-08 0.57155E-07 0.61767E-07 0.29475E-07 0.18287E-07 0.71183E-08 0.35134E-07
 0.82960E-07 0.59563E-07 0.67583E-07 0.16675E-06 0.16675E-06 0.67583E-07 0.59563E-07 0.82960E-07 0.35134E-07 0.71183E-08
 0.18287E-07 0.29475E-07 0.61767E-07 0.57155E-07 0.62138E-08 0.22860E-07 0.41113E-07 0.40543E-07 0.16671E-07 0.40543E-07
 0.41113E-07 0.92680E-08 0.35688E-07 0.61767E-07 0.22435E-07 0.23206E-08 0.18790E-07 0.17758E-07 0.16006E-07 0.12691E-07
 0.68333E-08 0.48275E-07 0.86845E-07 0.48275E-07 0.68333E-08 0.12691E-07 0.16006E-07 0.17758E-07 0.18790E-07 0.23206E-08
 0.22435E-07 0.61767E-07 0.35688E-07 0.92680E-08 0.37817E-07 0.12013E-06 0.16123E-06 0.16123E-06 0.12013E-06 0.37817E-07
 0.48197E-08 0.36240E-07 0.29475E-07 0.23206E-08 0.47537E-07 0.11354E-06 0.11016E-06 0.60960E-07 0.19576E-07 0.16021E-08
 0.11854E-08 0.11854E-08 0.16021E-08 0.19576E-07 0.60960E-07 0.11016E-06 0.11354E-06 0.47537E-07 0.23206E-08 0.29475E-07
 0.36240E-07 0.48197E-08 0.33141E-08 0.73022E-07 0.20130E-06 0.26505E-06 0.20130E-06 0.73022E-07 0.33141E-08 0.27472E-07
 0.50993E-07 0.18287E-07 0.18790E-07 0.11354E-06 0.19758E-06 0.16793E-06 0.80945E-07 0.33489E-07 0.30425E-07 0.34152E-07
 0.30425E-07 0.33489E-07 0.80945E-07 0.16793E-06 0.19758E-06 0.11354E-06 0.18790E-07 0.18287E-07 0.50993E-07 0.27472E-07
 0.54132E-07 0.16181E-07 0.56556E-07 0.14736E-06 0.14736E-06 0.56556E-07 0.16181E-07 0.54132E-07 0.81875E-07 0.55148E-07
 0.71183E-08 0.17758E-07 0.11016E-06 0.16793E-06 0.10894E-06 0.30530E-07 0.31453E-07 0.69788E-07 0.69788E-07 0.31453E-07
 0.30530E-07 0.10894E-06 0.16793E-06 0.11016E-06 0.17758E-07 0.71183E-08 0.55148E-07 0.81875E-07 0.10467E-06 0.93038E-07
 0.28917E-07 0.89859E-08 0.23734E-07 0.89859E-08 0.28917E-07 0.93038E-07 0.10467E-06 0.80411E-07 0.68850E-07 0.35134E-07
 0.16006E-07 0.60960E-07 0.80945E-07 0.30530E-07 0.83751E-10 0.24291E-07 0.44017E-07 0.24291E-07 0.83752E-10 0.30530E-07
 0.80945E-07 0.60960E-07 0.16006E-07 0.35134E-07 0.68850E-07 0.80411E-07 0.56345E-07 0.10012E-06 0.11248E-06 0.51876E-07
 0.12180E-07 0.12180E-07 0.51876E-07 0.11248E-06 0.10012E-06 0.56345E-07 0.10513E-06 0.15200E-06 0.82960E-07 0.12691E-07
 0.19576E-07 0.33489E-07 0.31453E-07 0.24291E-07 0.66440E-08 0.66440E-08 0.24291E-07 0.31453E-07 0.33489E-07 0.19576E-07
 0.12691E-07 0.82960E-07 0.15200E-06 0.10513E-06 0.61682E-07 0.11995E-07 0.68088E-07 0.91214E-07 0.59838E-07 0.42051E-07
 0.59838E-07 0.91214E-07 0.68088E-07 0.11995E-07 0.61682E-07 0.17272E-06 0.16035E-06 0.59563E-07 0.68333E-08 0.16021E-08
 0.30425E-07 0.69788E-07 0.44017E-07 0.66440E-08 0.44017E-07 0.69788E-07 0.30425E-07 0.16021E-08 0.68333E-08 0.59563E-07
 0.16035E-06 0.17272E-06 0.11503E-06 0.37398E-07 0.54402E-08 0.30943E-07 0.37977E-07 0.26633E-07 0.26633E-07 0.37977E-07
 0.30943E-07 0.54402E-08 0.37398E-07 0.11503E-06 0.11513E-06 0.66888E-07 0.67583E-07 0.48275E-07 0.11854E-08 0.34152E-07
 0.69788E-07 0.24291E-07 0.24291E-07 0.69788E-07 0.34152E-07 0.11854E-08 0.48275E-07 0.67583E-07 0.66888E-07 0.11513E-06
 0.72514E-07 0.11230E-06 0.73243E-07 0.30988E-07 0.10847E-07 0.17445E-08 0.16310E-09 0.17445E-08 0.10847E-07 0.30988E-07
 0.73243E-07 0.11230E-06 0.72514E-07 0.16495E-07 0.86922E-07 0.16675E-06 0.86845E-07 0.11854E-08 0.30425E-07 0.31453E-07
 0.83751E-10 0.31453E-07 0.30425E-07 0.11854E-08 0.86845E-07 0.16675E-06 0.86922E-07 0.16495E-07 0.10233E-07 0.83486E-07
 0.11833E-06 0.92605E-07 0.42217E-07 0.97565E-08 0.12153E-07 0.12153E-07 0.97565E-08 0.42217E-07 0.92605E-07 0.11833E-06
 0.83486E-07 0.10233E-07 0.30355E-07 0.15230E-06 0.16675E-06 0.48275E-07 0.16021E-08 0.33489E-07 0.30530E-07 0.30530E-07
 0.33489E-07 0.16021E-08 0.48275E-07 0.16675E-06 0.15230E-06 0.30355E-07 0.25461E-10 0.19092E-07 0.51490E-07 0.89488E-07
 0.83341E-07 0.29349E-07 0.15699E-07 0.30688E-07 0.15699E-07 0.29349E-07 0.83341E-07 0.89488E-07 0.51490E-07 0.19092E-07
 0.25461E-10 0.30355E-07 0.86922E-07 0.67583E-07 0.68333E-08 0.19576E-07 0.80945E-07 0.10894E-06 0.80945E-07 0.19576E-07
 0.68333E-08 0.67583E-07 0.86922E-07 0.30355E-07 0.10233E-07 0.19092E-07 0.11373E-09 0.42916E-07 0.11444E-06 0.78396E-07
 0.11032E-07 0.19565E-07 0.19565E-07 0.11032E-07 0.78396E-07 0.11444E-06 0.42916E-07 0.11373E-09 0.19092E-07 0.10233E-07
 0.16495E-07 0.66888E-07 0.59563E-07 0.12691E-07 0.60960E-07 0.16793E-06 0.16793E-06 0.60960E-07 0.12691E-07 0.59563E-07
 0.66888E-07 0.16495E-07 0.72514E-07 0.83486E-07 0.51490E-07 0.42916E-07 0.13057E-06 0.14899E-06 0.46932E-07 0.27702E-08
 0.19523E-07 0.27702E-08 0.46932E-07 0.14899E-06 0.13057E-06 0.42916E-07 0.51490E-07 0.83486E-07 0.72514E-07 0.11513E-06
 0.16035E-06 0.82960E-07 0.16006E-07 0.11016E-06 0.19758E-06 0.11016E-06 0.16006E-07 0.82960E-07 0.16035E-06 0.11513E-06
 0.11503E-06 0.11230E-06 0.11833E-06 0.89488E-07 0.11444E-06 0.14899E-06 0.78557E-07 0.32139E-08 0.17252E-07 0.17252E-07
 0.32139E-08 0.78557E-07 0.14899E-06 0.11444E-06 0.89488E-07 0.11833E-06 0.11230E-06 0.11503E-06 0.17272E-06 0.15200E-06
 0.35134E-07 0.17758E-07 0.11354E-06 0.11354E-06 0.17758E-07 0.35134E-07 0.15200E-06 0.17272E-06 0.61682E-07 0.37398E-07
 0.73243E-07 0.92605E-07 0.83341E-07 0.78396E-07 0.46932E-07 0.32139E-08 0.15887E-07 0.42199E-07 0.15887E-07 0.32139E-08
 0.46932E-07 0.78396E-07 0.83341E-07 0.92605E-07 0.73243E-07 0.37398E-07 0.61682E-07 0.10513E-06 0.68850E-07 0.71183E-08
 0.18790E-07 0.47537E-07 0.18790E-07 0.71183E-08 0.68850E-07 0.10513E-06 0.56345E-07 0.11995E-07 0.54402E-08 0.30988E-07
 0.42217E-07 0.29349E-07 0.11032E-07 0.27702E-08 0.17252E-07 0.42199E-07 0.42199E-07 0.17252E-07 0.27702E-08 0.11032E-07
 0.29349E-07 0.42217E-07 0.30988E-07 0.54402E-08 0.11995E-07 0.56345E-07 0.80411E-07 0.55148E-07 0.18287E-07 0.23206E-08
 0.23206E-08 0.18287E-07 0.55148E-07 0.80411E-07 0.10467E-06 0.10012E-06 0.68088E-07 0.30943E-07 0.10847E-07 0.97565E-08
 0.15699E-07 0.19565E-07 0.19523E-07 0.17252E-07 0.15887E-07 0.17252E-07 0.19523E-07 0.19565E-07 0.15699E-07 0.97565E-08
 0.10847E-07 0.30943E-07 0.68088E-07 0.10012E-06 0.10467E-06 0.81875E-07 0.50993E-07 0.29475E-07 0.22435E-07 0.29475E-07
 0.50993E-07 0.81875E-07 0.54132E-07 0.93038E-07 0.11248E-06 0.91214E-07 0.37977E-07 0.17445E-08 0.12153E-07 0.30688E-07
 0.19565E-07 0.27702E-08 0.32139E-08 0.32139E-08 0.27702E-08 0.19565E-07 0.30688E-07 0.12153E-07 0.17445E-08 0.37977E-07
 0.91214E-07 0.11248E-06 0.93038E-07 0.54132E-07 0.27472E-07 0.36240E-07 0.61767E-07 0.61767E-07 0.36240E-07 0.27472E-07
 0.33141E-08 0.16181E-07 0.28917E-07 0.51876E-07 0.59838E-07 0.26633E-07 0.16310E-09 0.12153E-07 0.15699E-07 0.11032E-07
 0.46932E-07 0.78557E-07 0.46932E-07 0.11032E-07 0.15699E-07 0.12153E-07 0.16310E-09 0.26633E-07 0.59838E-07 0.51876E-07
 0.28917E-07 0.16181E-07 0.33141E-08 0.48197E-08 0.35688E-07 0.57155E-07 0.35688E-07 0.48197E-08 0.37817E-07 0.73022E-07
 0.56556E-07 0.89859E-08 0.12180E-07 0.42051E-07 0.26633E-07 0.17445E-08 0.97565E-08 0.29349E-07 0.78396E-07 0.14899E-06
 0.14899E-06 0.78396E-07 0.29349E-07 0.97565E-08 0.17445E-08 0.26633E-07 0.42051E-07 0.12180E-07 0.89859E-08 0.56556E-07
 0.73022E-07 0.37817E-07 0.92680E-08 0.62138E-08 0.62138E-08 0.92680E-08 0.41113E-07 0.12013E-06 0.20130E-06 0.14736E-06
 0.23734E-07 0.12180E-07 0.59838E-07 0.37977E-07 0.10847E-07 0.42217E-07 0.83341E-07 0.11444E-06 0.13057E-06 0.11444E-06
 0.83341E-07 0.42217E-07 0.10847E-07 0.37977E-07 0.59838E-07 0.12180E-07 0.23734E-07 0.14736E-06 0.20130E-06 0.12013E-06
 0.41113E-07 0.22860E-07 0.23425E-07 0.22860E-07 0.62451E-07 0.40543E-07 0.16123E-06 0.26505E-06 0.14736E-06 0.89859E-08
 0.51876E-07 0.91214E-07 0.30943E-07 0.30988E-07 0.92605E-07 0.89488E-07 0.42916E-07 0.42916E-07 0.89488E-07 0.92605E-07
 0.30988E-07 0.30943E-07 0.91214E-07 0.51876E-07 0.89859E-08 0.14736E-06 0.26505E-06 0.16123E-06 0.40543E-07 0.62451E-07
 0.11671E-06 0.11671E-06 0.13214E-06 0.36195E-07 0.16671E-07 0.16123E-06 0.20130E-06 0.56556E-07 0.28917E-07 0.11248E-06
 0.68088E-07 0.54402E-08 0.73243E-07 0.11833E-06 0.51490E-07 0.11373E-09 0.51490E-07 0.11833E-06 0.73243E-07 0.54402E-08
 0.68088E-07 0.11248E-06 0.28917E-07 0.56556E-07 0.20130E-06 0.16123E-06 0.16671E-07 0.36195E-07 0.13214E-06 0.16312E-06
 0.79442E-07 0.98028E-07 0.36195E-07 0.40543E-07 0.12013E-06 0.73022E-07 0.16181E-07 0.93038E-07 0.10012E-06 0.11995E-07
 0.37398E-07 0.11230E-06 0.83486E-07 0.19092E-07 0.19092E-07 0.83486E-07 0.11230E-06 0.37398E-07 0.11995E-07 0.10012E-06
 0.93038E-07 0.16181E-07 0.73022E-07 0.12013E-06 0.40543E-07 0.36195E-07 0.98028E-07 0.79442E-07 0.10675E-11 0.11517E-06
 0.21133E-06 0.15566E-06 0.15893E-06 0.15169E-06 0.84037E-07 0.18411E-06 0.30687E-06 0.16808E-06 0.63576E-08 0.48919E-07
 0.10677E-06 0.71930E-07 0.42517E-07 0.71930E-07 0.10677E-06 0.48919E-07 0.63576E-08 0.16808E-06 0.30687E-06 0.18411E-06
 0.84037E-07 0.15169E-06 0.15893E-06 0.15566E-06 0.21133E-06 0.11517E-06 0.11517E-06 0.11517E-06 0.27297E-06 0.21413E-06
 0.62121E-07 0.34756E-07 0.89516E-08 0.23367E-07 0.11675E-06 0.85496E-07 0.10996E-07 0.78777E-07 0.11229E-06 0.35715E-07
 0.60693E-09 0.60693E-09 0.35715E-07 0.11229E-06 0.78777E-07 0.10996E-07 0.85496E-07 0.11675E-06 0.23367E-07 0.89516E-08
 0.34756E-07 0.62121E-07 0.21413E-06 0.27297E-06 0.21133E-06 0.11850E-06 0.21133E-06 0.21413E-06 0.36170E-07 0.31924E-07
 0.13908E-06 0.10984E-06 0.55197E-07 0.29124E-07 0.95128E-08 0.93404E-07 0.15348E-06 0.68251E-07 0.37284E-07 0.72255E-07
 0.37284E-07 0.68251E-07 0.15348E-06 0.93404E-07 0.95128E-08 0.29124E-07 0.55197E-07 0.10984E-06 0.13908E-06 0.31924E-07
 0.36170E-07 0.21413E-06 0.15566E-06 0.55025E-07 0.55025E-07 0.15566E-06 0.62121E-07 0.31924E-07 0.25576E-06 0.33276E-06
 0.15322E-06 0.20430E-07 0.20805E-08 0.43846E-07 0.10624E-06 0.94384E-07 0.97438E-07 0.19282E-06 0.19282E-06 0.97438E-07
 0.94384E-07 0.10624E-06 0.43846E-07 0.20805E-08 0.20430E-07 0.15322E-06 0.33276E-06 0.25576E-06 0.31924E-07 0.62121E-07
 0.15893E-06 0.13514E-06 0.36408E-07 0.13514E-06 0.15893E-06 0.34756E-07 0.13908E-06 0.33276E-06 0.22722E-06 0.28122E-07
 0.13872E-07 0.50357E-07 0.36324E-07 0.35872E-07 0.86165E-07 0.18683E-06 0.24808E-06 0.18683E-06 0.86165E-07 0.35872E-07
 0.36324E-07 0.50357E-07 0.13872E-07 0.28122E-07 0.22722E-06 0.33276E-06 0.13908E-06 0.34756E-07 0.15169E-06 0.32145E-06
 0.29296E-06 0.29296E-06 0.32145E-06 0.15169E-06 0.89516E-08 0.10984E-06 0.15322E-06 0.28122E-07 0.27019E-07 0.13664E-06
 0.10774E-06 0.10695E-07 0.27786E-07 0.10166E-06 0.13028E-06 0.13028E-06 0.10166E-06 0.27786E-07 0.10695E-07 0.10774E-06
 0.13664E-06 0.27019E-07 0.28122E-07 0.15322E-06 0.10984E-06 0.89516E-08 0.84037E-07 0.28009E-06 0.43050E-06 0.46824E-06
 0.43050E-06 0.28009E-06 0.84037E-07 0.23367E-07 0.55197E-07 0.20430E-07 0.13872E-07 0.13664E-06 0.18794E-06 0.68689E-07
 0.61581E-09 0.51842E-07 0.52240E-07 0.18471E-07 0.52240E-07 0.51842E-07 0.61581E-09 0.68689E-07 0.18794E-06 0.13664E-06
 0.13872E-07 0.20430E-07 0.55197E-07 0.23367E-07 0.18411E-06 0.18548E-06 0.23373E-06 0.34950E-06 0.34950E-06 0.23373E-06
 0.18548E-06 0.18411E-06 0.11675E-06 0.29124E-07 0.20805E-08 0.50357E-07 0.10774E-06 0.68689E-07 0.14134E-08 0.40057E-07
 0.75987E-07 0.19099E-07 0.19099E-07 0.75987E-07 0.40057E-07 0.14134E-08 0.68689E-07 0.10774E-06 0.50357E-07 0.20805E-08
 0.29124E-07 0.11675E-06 0.30687E-06 0.33843E-06 0.14016E-06 0.85990E-07 0.14118E-06 0.85990E-07 0.14016E-06 0.33843E-06
 0.30687E-06 0.85496E-07 0.95128E-08 0.43846E-07 0.36324E-07 0.10695E-07 0.61581E-09 0.40057E-07 0.99830E-07 0.68253E-07
 0.17744E-07 0.68253E-07 0.99830E-07 0.40057E-07 0.61581E-09 0.10695E-07 0.36324E-07 0.43846E-07 0.95128E-08 0.85496E-07
 0.16808E-06 0.41808E-06 0.31176E-06 0.54475E-07 0.97933E-08 0.97933E-08 0.54475E-07 0.31176E-06 0.41808E-06 0.16808E-06
 0.10996E-07 0.93404E-07 0.10624E-06 0.35872E-07 0.27786E-07 0.51842E-07 0.75987E-07 0.68253E-07 0.14564E-07 0.14564E-07
 0.68253E-07 0.75987E-07 0.51842E-07 0.27786E-07 0.35872E-07 0.10624E-06 0.93404E-07 0.10996E-07 0.63576E-08 0.19073E-06
 0.33124E-06 0.17255E-06 0.17411E-07 0.29021E-09 0.17411E-07 0.17255E-06 0.33124E-06 0.19073E-06 0.63576E-08 0.78777E-07
 0.15348E-06 0.94384E-07 0.86165E-07 0.10166E-06 0.52240E-07 0.19099E-07 0.17744E-07 0.14564E-07 0.17744E-07 0.19099E-07
 0.52240E-07 0.10166E-06 0.86165E-07 0.94384E-07 0.15348E-06 0.78777E-07 0.48919E-07 0.10842E-07 0.11650E-06 0.14677E-06
 0.54764E-07 0.78289E-08 0.78289E-08 0.54764E-07 0.14677E-06 0.11650E-06 0.10842E-07 0.48919E-07 0.11229E-06 0.68251E-07
 0.97438E-07 0.18683E-06 0.13028E-06 0.18471E-07 0.19099E-07 0.68253E-07 0.68253E-07 0.19099E-07 0.18471E-07 0.13028E-06
 0.18683E-06 0.97438E-07 0.68251E-07 0.11229E-06 0.10677E-06 0.65416E-07 0.11204E-07 0.31092E-07 0.47990E-07 0.49387E-07
 0.54430E-07 0.49387E-07 0.47990E-07 0.31092E-07 0.11204E-07 0.65416E-07 0.10677E-06 0.35715E-07 0.37284E-07 0.19282E-06
 0.24808E-06 0.13028E-06 0.52240E-07 0.75987E-07 0.99830E-07 0.75987E-07 0.52240E-07 0.13028E-06 0.24808E-06 0.19282E-06
 0.37284E-07 0.35715E-07 0.71930E-07 0.12320E-06 0.63032E-07 0.30573E-08 0.18689E-07 0.78431E-07 0.13018E-06 0.13018E-06
 0.78431E-07 0.18689E-07 0.30573E-08 0.63032E-07 0.12320E-06 0.71930E-07 0.60692E-09 0.72255E-07 0.19282E-06 0.18683E-06
 0.10166E-06 0.51842E-07 0.40057E-07 0.40057E-07 0.51842E-07 0.10166E-06 0.18683E-06 0.19282E-06 0.72255E-07 0.60693E-09
 0.42517E-07 0.88980E-07 0.71046E-07 0.20450E-07 0.12487E-08 0.39945E-07 0.11101E-06 0.14795E-06 0.11101E-06 0.39945E-07
 0.12487E-08 0.20450E-07 0.71046E-07 0.88980E-07 0.42517E-07 0.60692E-09 0.37284E-07 0.97438E-07 0.86165E-07 0.27786E-07
 0.61581E-09 0.14134E-08 0.61581E-09 0.27786E-07 0.86165E-07 0.97438E-07 0.37284E-07 0.60693E-09 0.71930E-07 0.88980E-07
 0.44794E-07 0.82004E-08 0.24689E-08 0.56118E-08 0.26429E-07 0.57744E-07 0.57744E-07 0.26429E-07 0.56118E-08 0.24689E-08
 0.82004E-08 0.44794E-07 0.88980E-07 0.71930E-07 0.35715E-07 0.68251E-07 0.94384E-07 0.35872E-07 0.10695E-07 0.68689E-07
 0.68689E-07 0.10695E-07 0.35872E-07 0.94384E-07 0.68251E-07 0.35715E-07 0.10677E-06 0.12320E-06 0.71046E-07 0.82004E-08
 0.68795E-08 0.22914E-07 0.15252E-07 0.38542E-08 0.14368E-08 0.38542E-08 0.15252E-07 0.22914E-07 0.68795E-08 0.82004E-08
 0.71046E-07 0.12320E-06 0.10677E-06 0.11229E-06 0.15348E-06 0.10624E-06 0.36324E-07 0.10774E-06 0.18794E-06 0.10774E-06
 0.36324E-07 0.10624E-06 0.15348E-06 0.11229E-06 0.48919E-07 0.65416E-07 0.63032E-07 0.20450E-07 0.24689E-08 0.22914E-07
 0.40306E-07 0.36814E-07 0.26572E-07 0.26572E-07 0.36814E-07 0.40306E-07 0.22914E-07 0.24689E-08 0.20450E-07 0.63032E-07
 0.65416E-07 0.48919E-07 0.78777E-07 0.93404E-07 0.43846E-07 0.50357E-07 0.13664E-06 0.13664E-06 0.50357E-07 0.43846E-07
 0.93404E-07 0.78777E-07 0.63576E-08 0.10842E-07 0.11204E-07 0.30573E-08 0.12487E-08 0.56118E-08 0.15252E-07 0.36814E-07
 0.60436E-07 0.69943E-07 0.60436E-07 0.36814E-07 0.15252E-07 0.56118E-08 0.12487E-08 0.30573E-08 0.11204E-07 0.10842E-07
 0.63576E-08 0.10996E-07 0.95128E-08 0.20805E-08 0.13872E-07 0.27019E-07 0.13872E-07 0.20805E-08 0.95128E-08 0.10996E-07
 0.16808E-06 0.19073E-06 0.11650E-06 0.31092E-07 0.18689E-07 0.39945E-07 0.26429E-07 0.38542E-08 0.26572E-07 0.69943E-07
 0.69943E-07 0.26572E-07 0.38542E-08 0.26429E-07 0.39945E-07 0.18689E-07 0.31092E-07 0.11650E-06 0.19073E-06 0.16808E-06
 0.85496E-07 0.29124E-07 0.20430E-07 0.28122E-07 0.28122E-07 0.20430E-07 0.29124E-07 0.85496E-07 0.30687E-06 0.41808E-06
 0.33124E-06 0.14677E-06 0.47990E-07 0.78431E-07 0.11101E-06 0.57744E-07 0.14368E-08 0.26572E-07 0.60436E-07 0.26572E-07
 0.14368E-08 0.57744E-07 0.11101E-06 0.78431E-07 0.47990E-07 0.14677E-06 0.33124E-06 0.41808E-06 0.30687E-06 0.11675E-06
 0.55197E-07 0.15322E-06 0.22722E-06 0.15322E-06 0.55197E-07 0.11675E-06 0.18411E-06 0.33843E-06 0.31176E-06 0.17255E-06
 0.54764E-07 0.49387E-07 0.13018E-06 0.14795E-06 0.57744E-07 0.38542E-08 0.36814E-07 0.36814E-07 0.38542E-08 0.57744E-07
 0.14795E-06 0.13018E-06 0.49387E-07 0.54764E-07 0.17255E-06 0.31176E-06 0.33843E-06 0.18411E-06 0.23367E-07 0.10984E-06
 0.33276E-06 0.33276E-06 0.10984E-06 0.23367E-07 0.84037E-07 0.18548E-06 0.14016E-06 0.54475E-07 0.17411E-07 0.78289E-08
 0.54430E-07 0.13018E-06 0.11101E-06 0.26429E-07 0.15252E-07 0.40306E-07 0.15252E-07 0.26429E-07 0.11101E-06 0.13018E-06
 0.54430E-07 0.78289E-08 0.17411E-07 0.54475E-07 0.14016E-06 0.18548E-06 0.84037E-07 0.89516E-08 0.13908E-06 0.25576E-06
 0.13908E-06 0.89516E-08 0.15169E-06 0.28009E-06 0.23373E-06 0.85990E-07 0.97933E-08 0.29021E-09 0.78289E-08 0.49387E-07
 0.78431E-07 0.39945E-07 0.56118E-08 0.22914E-07 0.22914E-07 0.56118E-08 0.39945E-07 0.78431E-07 0.49387E-07 0.78289E-08
 0.29021E-09 0.97933E-08 0.85990E-07 0.23373E-06 0.28009E-06 0.15169E-06 0.34756E-07 0.31924E-07 0.31924E-07 0.34756E-07
 0.15893E-06 0.32145E-06 0.43050E-06 0.34950E-06 0.14118E-06 0.97933E-08 0.17411E-07 0.54764E-07 0.47990E-07 0.18689E-07
 0.12487E-08 0.24689E-08 0.68795E-08 0.24689E-08 0.12487E-08 0.18689E-07 0.47990E-07 0.54764E-07 0.17411E-07 0.97933E-08
 0.14118E-06 0.34950E-06 0.43050E-06 0.32145E-06 0.15893E-06 0.62121E-07 0.36170E-07 0.62121E-07 0.15566E-06 0.13514E-06
 0.29296E-06 0.46824E-06 0.34950E-06 0.85990E-07 0.54475E-07 0.17255E-06 0.14677E-06 0.31092E-07 0.30573E-08 0.20450E-07
 0.82004E-08 0.82004E-08 0.20450E-07 0.30573E-08 0.31092E-07 0.14677E-06 0.17255E-06 0.54475E-07 0.85990E-07 0.34950E-06
 0.46824E-06 0.29296E-06 0.13514E-06 0.15566E-06 0.21413E-06 0.21413E-06 0.21133E-06 0.55025E-07 0.36408E-07 0.29296E-06
 0.43050E-06 0.23373E-06 0.14016E-06 0.31176E-06 0.33124E-06 0.11650E-06 0.11204E-07 0.63032E-07 0.71046E-07 0.44794E-07
 0.71046E-07 0.63032E-07 0.11204E-07 0.11650E-06 0.33124E-06 0.31176E-06 0.14016E-06 0.23373E-06 0.43050E-06 0.29296E-06
 0.36408E-07 0.55025E-07 0.21133E-06 0.27297E-06 0.11517E-06 0.11850E-06 0.55025E-07 0.13514E-06 0.32145E-06 0.28009E-06
 0.18548E-06 0.33843E-06 0.41808E-06 0.19073E-06 0.10842E-07 0.65416E-07 0.12320E-06 0.88980E-07 0.88980E-07 0.12320E-06
 0.65416E-07 0.10842E-07 0.19073E-06 0.41808E-06 0.33843E-06 0.18548E-06 0.28009E-06 0.32145E-06 0.13514E-06 0.55025E-07
 0.11850E-06 0.11517E-06 0.10097E-11 0.77767E-07 0.14654E-06 0.11195E-06 0.11975E-06 0.14800E-06 0.15353E-06 0.25917E-06
 0.35955E-06 0.23968E-06 0.58819E-07 0.46177E-07 0.97219E-07 0.71212E-07 0.37100E-07 0.71212E-07 0.97219E-07 0.46177E-07
 0.58819E-07 0.23968E-06 0.35955E-06 0.25917E-06 0.15353E-06 0.14800E-06 0.11975E-06 0.11195E-06 0.14654E-06 0.77767E-07
 0.77767E-07 0.77767E-07 0.16192E-06 0.10967E-06 0.21506E-07 0.21298E-07 0.60643E-08 0.21177E-07 0.10476E-06 0.89537E-07
 0.18247E-07 0.53316E-07 0.90559E-07 0.43932E-07 0.63529E-08 0.63529E-08 0.43932E-07 0.90559E-07 0.53316E-07 0.18247E-07
 0.89537E-07 0.10476E-06 0.21177E-07 0.60643E-08 0.21298E-07 0.21506E-07 0.10967E-06 0.16192E-06 0.14654E-06 0.10329E-06
 0.14654E-06 0.10967E-06 0.21575E-08 0.88638E-07 0.21190E-06 0.13153E-06 0.22580E-07 0.53422E-08 0.22043E-07 0.89090E-07
 0.11902E-06 0.41533E-07 0.72346E-08 0.28030E-07 0.72346E-08 0.41533E-07 0.11902E-06 0.89090E-07 0.22043E-07 0.53422E-08
 0.22580E-07 0.13153E-06 0.21190E-06 0.88638E-07 0.21575E-08 0.10967E-06 0.11195E-06 0.64630E-07 0.64630E-07 0.11195E-06